 Gaussian 09, Revision E.01,
 Gaussian 09:  ES64L-G09RevE.01 30-Nov-2015

 -------------------
 # NMR PBE1PBE/6-31G
 -------------------

 -------------
 Furan_nmr.xyz
 -------------
 Symbolic Z-matrix:
 Charge =  0 Multiplicity = 1

                         Standard orientation:
 ---------------------------------------------------------------------
 Center     Atomic      Atomic             Coordinates (Angstroms)
 Number     Number       Type             X           Y           Z
 ---------------------------------------------------------------------
      1          6           0       -1.088451   -0.346854    0.000150
      2          6           0       -0.717315    0.956255   -0.000127
      3          6           0        0.717282    0.956278    0.000050
      4          6           0        1.088460   -0.346822    0.000130
      5          8           0        0.000022   -1.155437   -0.000188
      6          1           0       -2.044474   -0.849581    0.000229
      7          1           0       -1.375017    1.814686   -0.000234
      8          1           0        1.374949    1.814735    0.000085
      9          1           0        2.044517   -0.849485    0.000210
 ---------------------------------------------------------------------

 SCF Done:  E(RPBE1PBE) =  -229.684208250     A.U. after   13 cycles

      1  C    Isotropic =    61.7635   Anisotropy =    97.3446

      2  C    Isotropic =    92.1959   Anisotropy =   124.0038

      3  C    Isotropic =    92.1954   Anisotropy =   124.0022

      4  C    Isotropic =    61.7640   Anisotropy =    97.3471

      5  O    Isotropic =    45.5366   Anisotropy =   310.9735

      6  H    Isotropic =    25.3085   Anisotropy =     2.5881

      7  H    Isotropic =    26.3348   Anisotropy =     2.3370

      8  H    Isotropic =    26.3348   Anisotropy =     2.3369

      9  H    Isotropic =    25.3085   Anisotropy =     2.5880

 The electronic state is 1-A.
 Alpha  occ. eigenvalues --  -19.29286 -10.28221 -10.28217 -10.23513 -10.23477
 Alpha  occ. eigenvalues --   -1.16527  -0.83206  -0.77759  -0.62285  -0.58626
 Alpha  occ. eigenvalues --   -0.56001  -0.46940  -0.45853  -0.42862  -0.41354
 Alpha  occ. eigenvalues --   -0.38079  -0.29236  -0.24402
 Alpha virt. eigenvalues --    0.02301   0.08361   0.12816   0.15000   0.16740
 Alpha virt. eigenvalues --    0.17850   0.20879   0.21403   0.32524   0.39419
 Alpha virt. eigenvalues --    0.44632   0.55102   0.55256   0.61196   0.61429

 Mulliken charges:
               1
     1  C    0.063600
     2  C   -0.216990
     3  C   -0.216995
     4  C    0.063609
     5  O   -0.481329
     6  H    0.205767
     7  H    0.188287
     8  H    0.188286
     9  H    0.205766
 Sum of Mulliken charges =   0.00000

 Dipole moment (field-independent basis, Debye):
    X=             -0.0000    Y=              0.9595    Z=              0.0004  Tot=              0.9595
 Quadrupole moment (field-independent basis, Debye-Ang):
   XX=            -23.4169   YY=            -28.3447   ZZ=            -31.5023
   XY=              0.0001   XZ=              0.0002   YZ=             -0.0010

 Normal termination of Gaussian 09 at Thu May 21 10:38:34 2020.
